# vtk DataFile Version 5.1
vtk output
ASCII
DATASET POLYDATA
POINTS 132 float
387798 1.99649e+06 -0.2 387783 1.99651e+06 -0.2 387771 1.99653e+06 -0.2 
387750 1.99651e+06 -0.2 387762 1.99649e+06 -0.2 387776 1.99647e+06 -0.2 
387755 1.99646e+06 -0.2 387741 1.99648e+06 -0.2 387730 1.9965e+06 -0.2 
387710 1.99649e+06 -0.2 387721 1.99647e+06 -0.2 387732 1.99644e+06 -0.2 
387709 1.99643e+06 -0.2 387700 1.99645e+06 -0.2 387690 1.99648e+06 -0.2 
387670 1.99647e+06 -0.2 387678 1.99644e+06 -0.2 387686 1.99641e+06 -0.2 
387666 1.9964e+06 -0.2 387659 1.99643e+06 -0.2 387652 1.99645e+06 -0.2 
387639 1.99644e+06 -0.2 387638 1.99641e+06 -0.2 387645 1.99638e+06 -0.2 
387641 1.9964e+06 -0.2 387798 1.99649e+06 -1 387783 1.99651e+06 -1 
387771 1.99653e+06 -1 387750 1.99651e+06 -1 387762 1.99649e+06 -1 
387776 1.99647e+06 -1 387755 1.99646e+06 -1 387741 1.99648e+06 -1 
387730 1.9965e+06 -1 387710 1.99649e+06 -1 387721 1.99647e+06 -1 
387732 1.99644e+06 -1 387709 1.99643e+06 -1 387700 1.99645e+06 -1 
387690 1.99648e+06 -1 387670 1.99647e+06 -1 387678 1.99644e+06 -1 
387686 1.99641e+06 -1 387666 1.9964e+06 -1 387659 1.99643e+06 -1 
387652 1.99645e+06 -1 387639 1.99644e+06 -1 387638 1.99641e+06 -1 
387645 1.99638e+06 -1 387641 1.9964e+06 -1 387798 1.99649e+06 -1.2 
387783 1.99651e+06 -1.2 387771 1.99653e+06 -1.2 387750 1.99651e+06 -1.2 
387762 1.99649e+06 -1.2 387776 1.99647e+06 -1.2 387755 1.99646e+06 -1.2 
387741 1.99648e+06 -1.2 387730 1.9965e+06 -1.2 387710 1.99649e+06 -1.2 
387721 1.99647e+06 -1.2 387732 1.99644e+06 -1.2 387709 1.99643e+06 -1.2 
387700 1.99645e+06 -1.2 387690 1.99648e+06 -1.2 387670 1.99647e+06 -1.2 
387678 1.99644e+06 -1.2 387686 1.99641e+06 -1.2 387666 1.9964e+06 -1.2 
387659 1.99643e+06 -1.2 387652 1.99645e+06 -1.2 387639 1.99644e+06 -1.2 
387638 1.99641e+06 -1.2 387645 1.99638e+06 -1.2 387641 1.9964e+06 -1.2 
387652 1.9965e+06 -0.2 387651 1.99652e+06 -0.2 387651 1.99654e+06 -0.2 
387673 1.99656e+06 -0.2 387674 1.99653e+06 -0.2 387676 1.99651e+06 -0.2 
387700 1.99653e+06 -0.2 387697 1.99655e+06 -0.2 387694 1.99657e+06 -0.2 
387717 1.99658e+06 -0.2 387720 1.99656e+06 -0.2 387724 1.99654e+06 -0.2 
387749 1.99655e+06 -0.2 387743 1.99657e+06 -0.2 387736 1.99659e+06 -0.2 
387693 1.99658e+06 -0.2 387714 1.99659e+06 -0.2 387731 1.9966e+06 -0.2 
387755 1.99659e+06 -0.2 387652 1.9965e+06 -1 387651 1.99652e+06 -1 
387651 1.99654e+06 -1 387673 1.99656e+06 -1 387674 1.99653e+06 -1 
387676 1.99651e+06 -1 387700 1.99653e+06 -1 387697 1.99655e+06 -1 
387694 1.99657e+06 -1 387717 1.99658e+06 -1 387720 1.99656e+06 -1 
387724 1.99654e+06 -1 387749 1.99655e+06 -1 387743 1.99657e+06 -1 
387736 1.99659e+06 -1 387693 1.99658e+06 -1 387714 1.99659e+06 -1 
387731 1.9966e+06 -1 387755 1.99659e+06 -1 387652 1.9965e+06 -1.2 
387651 1.99652e+06 -1.2 387651 1.99654e+06 -1.2 387673 1.99656e+06 -1.2 
387674 1.99653e+06 -1.2 387676 1.99651e+06 -1.2 387700 1.99653e+06 -1.2 
387697 1.99655e+06 -1.2 387694 1.99657e+06 -1.2 387717 1.99658e+06 -1.2 
387720 1.99656e+06 -1.2 387724 1.99654e+06 -1.2 387749 1.99655e+06 -1.2 
387743 1.99657e+06 -1.2 387736 1.99659e+06 -1.2 387693 1.99658e+06 -1.2 
387714 1.99659e+06 -1.2 387731 1.9966e+06 -1.2 387755 1.99659e+06 -1.2 

METADATA
INFORMATION 0

VERTICES 133 132
OFFSETS vtktypeint64
0 1 2 3 4 5 6 7 8 
9 10 11 12 13 14 15 16 17 
18 19 20 21 22 23 24 25 26 
27 28 29 30 31 32 33 34 35 
36 37 38 39 40 41 42 43 44 
45 46 47 48 49 50 51 52 53 
54 55 56 57 58 59 60 61 62 
63 64 65 66 67 68 69 70 71 
72 73 74 75 76 77 78 79 80 
81 82 83 84 85 86 87 88 89 
90 91 92 93 94 95 96 97 98 
99 100 101 102 103 104 105 106 107 
108 109 110 111 112 113 114 115 116 
117 118 119 120 121 122 123 124 125 
126 127 128 129 130 131 132 
CONNECTIVITY vtktypeint64
0 1 2 3 4 5 6 7 8 
9 10 11 12 13 14 15 16 17 
18 19 20 21 22 23 24 25 26 
27 28 29 30 31 32 33 34 35 
36 37 38 39 40 41 42 43 44 
45 46 47 48 49 50 51 52 53 
54 55 56 57 58 59 60 61 62 
63 64 65 66 67 68 69 70 71 
72 73 74 75 76 77 78 79 80 
81 82 83 84 85 86 87 88 89 
90 91 92 93 94 95 96 97 98 
99 100 101 102 103 104 105 106 107 
108 109 110 111 112 113 114 115 116 
117 118 119 120 121 122 123 124 125 
126 127 128 129 130 131 
POINT_DATA 132
SCALARS scalar float
LOOKUP_TABLE default
0 0 0 0 0 0 0 0 0 
0 0 0 0 0 0 0 0 0 
0 0 0 0 0 0 0 0 0 
14 0 0 0 0 0 0 0 0 
0 0 6.776 0 0 0 0 0 0 
0 0 0 0 0 0 0 0 0 
0 0 0 0 0 0 0 0 0 
0 0 0 0 0 0 0 0 0 
0 0 0 0 0 0 0 0 0 
0 0 0 0 0 0 0 0 0 
31.019 0 0 0 0 0 0 0 0 
0 0 0 0 0 11.185 0 0 0 
12.592 0 30.531 0 0 0 0 0 0 
0 0 0 0 0 0 0 0 0 
0 0 9.305 9.754 0 0 
