# vtk DataFile Version 5.1
vtk output
ASCII
DATASET POLYDATA
POINTS 132 float
387798 1.99649e+06 -0.2 387783 1.99651e+06 -0.2 387771 1.99653e+06 -0.2 
387750 1.99651e+06 -0.2 387762 1.99649e+06 -0.2 387776 1.99647e+06 -0.2 
387755 1.99646e+06 -0.2 387741 1.99648e+06 -0.2 387730 1.9965e+06 -0.2 
387710 1.99649e+06 -0.2 387721 1.99647e+06 -0.2 387732 1.99644e+06 -0.2 
387709 1.99643e+06 -0.2 387700 1.99645e+06 -0.2 387690 1.99648e+06 -0.2 
387670 1.99647e+06 -0.2 387678 1.99644e+06 -0.2 387686 1.99641e+06 -0.2 
387666 1.9964e+06 -0.2 387659 1.99643e+06 -0.2 387652 1.99645e+06 -0.2 
387639 1.99644e+06 -0.2 387638 1.99641e+06 -0.2 387645 1.99638e+06 -0.2 
387641 1.9964e+06 -0.2 387798 1.99649e+06 -1 387783 1.99651e+06 -1 
387771 1.99653e+06 -1 387750 1.99651e+06 -1 387762 1.99649e+06 -1 
387776 1.99647e+06 -1 387755 1.99646e+06 -1 387741 1.99648e+06 -1 
387730 1.9965e+06 -1 387710 1.99649e+06 -1 387721 1.99647e+06 -1 
387732 1.99644e+06 -1 387709 1.99643e+06 -1 387700 1.99645e+06 -1 
387690 1.99648e+06 -1 387670 1.99647e+06 -1 387678 1.99644e+06 -1 
387686 1.99641e+06 -1 387666 1.9964e+06 -1 387659 1.99643e+06 -1 
387652 1.99645e+06 -1 387639 1.99644e+06 -1 387638 1.99641e+06 -1 
387645 1.99638e+06 -1 387641 1.9964e+06 -1 387798 1.99649e+06 -1.2 
387783 1.99651e+06 -1.2 387771 1.99653e+06 -1.2 387750 1.99651e+06 -1.2 
387762 1.99649e+06 -1.2 387776 1.99647e+06 -1.2 387755 1.99646e+06 -1.2 
387741 1.99648e+06 -1.2 387730 1.9965e+06 -1.2 387710 1.99649e+06 -1.2 
387721 1.99647e+06 -1.2 387732 1.99644e+06 -1.2 387709 1.99643e+06 -1.2 
387700 1.99645e+06 -1.2 387690 1.99648e+06 -1.2 387670 1.99647e+06 -1.2 
387678 1.99644e+06 -1.2 387686 1.99641e+06 -1.2 387666 1.9964e+06 -1.2 
387659 1.99643e+06 -1.2 387652 1.99645e+06 -1.2 387639 1.99644e+06 -1.2 
387638 1.99641e+06 -1.2 387645 1.99638e+06 -1.2 387641 1.9964e+06 -1.2 
387652 1.9965e+06 -0.2 387651 1.99652e+06 -0.2 387651 1.99654e+06 -0.2 
387673 1.99656e+06 -0.2 387674 1.99653e+06 -0.2 387676 1.99651e+06 -0.2 
387700 1.99653e+06 -0.2 387697 1.99655e+06 -0.2 387694 1.99657e+06 -0.2 
387717 1.99658e+06 -0.2 387720 1.99656e+06 -0.2 387724 1.99654e+06 -0.2 
387749 1.99655e+06 -0.2 387743 1.99657e+06 -0.2 387736 1.99659e+06 -0.2 
387693 1.99658e+06 -0.2 387714 1.99659e+06 -0.2 387731 1.9966e+06 -0.2 
387755 1.99659e+06 -0.2 387652 1.9965e+06 -1 387651 1.99652e+06 -1 
387651 1.99654e+06 -1 387673 1.99656e+06 -1 387674 1.99653e+06 -1 
387676 1.99651e+06 -1 387700 1.99653e+06 -1 387697 1.99655e+06 -1 
387694 1.99657e+06 -1 387717 1.99658e+06 -1 387720 1.99656e+06 -1 
387724 1.99654e+06 -1 387749 1.99655e+06 -1 387743 1.99657e+06 -1 
387736 1.99659e+06 -1 387693 1.99658e+06 -1 387714 1.99659e+06 -1 
387731 1.9966e+06 -1 387755 1.99659e+06 -1 387652 1.9965e+06 -1.2 
387651 1.99652e+06 -1.2 387651 1.99654e+06 -1.2 387673 1.99656e+06 -1.2 
387674 1.99653e+06 -1.2 387676 1.99651e+06 -1.2 387700 1.99653e+06 -1.2 
387697 1.99655e+06 -1.2 387694 1.99657e+06 -1.2 387717 1.99658e+06 -1.2 
387720 1.99656e+06 -1.2 387724 1.99654e+06 -1.2 387749 1.99655e+06 -1.2 
387743 1.99657e+06 -1.2 387736 1.99659e+06 -1.2 387693 1.99658e+06 -1.2 
387714 1.99659e+06 -1.2 387731 1.9966e+06 -1.2 387755 1.99659e+06 -1.2 

METADATA
INFORMATION 0

VERTICES 133 132
OFFSETS vtktypeint64
0 1 2 3 4 5 6 7 8 
9 10 11 12 13 14 15 16 17 
18 19 20 21 22 23 24 25 26 
27 28 29 30 31 32 33 34 35 
36 37 38 39 40 41 42 43 44 
45 46 47 48 49 50 51 52 53 
54 55 56 57 58 59 60 61 62 
63 64 65 66 67 68 69 70 71 
72 73 74 75 76 77 78 79 80 
81 82 83 84 85 86 87 88 89 
90 91 92 93 94 95 96 97 98 
99 100 101 102 103 104 105 106 107 
108 109 110 111 112 113 114 115 116 
117 118 119 120 121 122 123 124 125 
126 127 128 129 130 131 132 
CONNECTIVITY vtktypeint64
0 1 2 3 4 5 6 7 8 
9 10 11 12 13 14 15 16 17 
18 19 20 21 22 23 24 25 26 
27 28 29 30 31 32 33 34 35 
36 37 38 39 40 41 42 43 44 
45 46 47 48 49 50 51 52 53 
54 55 56 57 58 59 60 61 62 
63 64 65 66 67 68 69 70 71 
72 73 74 75 76 77 78 79 80 
81 82 83 84 85 86 87 88 89 
90 91 92 93 94 95 96 97 98 
99 100 101 102 103 104 105 106 107 
108 109 110 111 112 113 114 115 116 
117 118 119 120 121 122 123 124 125 
126 127 128 129 130 131 
POINT_DATA 132
SCALARS scalar float
LOOKUP_TABLE default
0 539.26 1835.69 2654.56 2015.54 1824.87 3687.14 1589.23 1066.48 
876.26 546.89 1548.68 987.15 2456.98 6252.94 5476.22 9732.2 1197.97 
0 1460.71 1764.42 0 2275.32 778.72 765.47 1759.62 3256.11 
1845.65 654.65 3426.26 847.98 1258.98 645.2 650.01 636.45 3365.65 
658.74 936.48 2229.38 0 583.72 1093.43 0 534.25 2297.25 
721.76 0 2047.93 2769.71 265.76 1096.54 2458.05 0 0 
988.48 915.87 549.65 765.63 387.98 0 1326.98 1291.56 684.45 
3803.09 1773.01 1496.27 1120.79 649.51 827.62 891.59 6879.59 3314.75 
3478.73 1705.11 1720.48 1689.45 1546.89 2654.87 656.98 4052.65 0 
1265.44 887.23 568.97 564.87 546.12 3841.69 541.65 2645.36 1654.97 
659.99 1269.94 487.98 1136.65 656.65 518.98 3315.69 0 548.98 
0 1642.55 4005.56 654.05 1054.41 1015.65 1320.65 0 805.99 
2015.47 455.26 879.69 1054.89 478.99 948.98 985.67 2013.65 0 
1265.98 0 0 1046.68 1456.48 0 456.98 656.98 621.05 
0 1055.36 698.77 0 956.12 0 
