# vtk DataFile Version 5.1
vtk output
ASCII
DATASET RECTILINEAR_GRID
DIMENSIONS 200 250 3
X_COORDINATES 200 float
387638 387639 387640 387641 387641 387642 387643 387644 387645 
387645 387646 387647 387648 387649 387649 387650 387651 387652 
387653 387653 387654 387655 387656 387657 387657 387658 387659 
387660 387661 387662 387662 387663 387664 387665 387666 387666 
387667 387668 387669 387670 387670 387671 387672 387673 387674 
387674 387675 387676 387677 387678 387678 387679 387680 387681 
387682 387682 387683 387684 387685 387686 387686 387687 387688 
387689 387690 387690 387691 387692 387693 387694 387694 387695 
387696 387697 387698 387699 387699 387700 387701 387702 387703 
387703 387704 387705 387706 387707 387707 387708 387709 387710 
387711 387711 387712 387713 387714 387715 387715 387716 387717 
387718 387719 387719 387720 387721 387722 387723 387724 387724 
387725 387726 387727 387728 387728 387729 387730 387731 387732 
387732 387733 387734 387735 387736 387736 387737 387738 387739 
387740 387740 387741 387742 387743 387744 387744 387745 387746 
387747 387748 387748 387749 387750 387751 387752 387752 387753 
387754 387755 387756 387756 387757 387758 387759 387760 387761 
387761 387762 387763 387764 387765 387765 387766 387767 387768 
387769 387769 387770 387771 387772 387773 387773 387774 387775 
387776 387777 387777 387778 387779 387780 387781 387781 387782 
387783 387784 387785 387786 387786 387787 387788 387789 387790 
387790 387791 387792 387793 387794 387794 387795 387796 387797 
387798 387798 
Y_COORDINATES 250 float
1.99638e+06 1.99638e+06 1.99639e+06 1.99639e+06 1.99639e+06 1.99639e+06 1.99639e+06 1.99639e+06 1.99639e+06 
1.99639e+06 1.99639e+06 1.99639e+06 1.99639e+06 1.9964e+06 1.9964e+06 1.9964e+06 1.9964e+06 1.9964e+06 
1.9964e+06 1.9964e+06 1.9964e+06 1.9964e+06 1.9964e+06 1.9964e+06 1.9964e+06 1.99641e+06 1.99641e+06 
1.99641e+06 1.99641e+06 1.99641e+06 1.99641e+06 1.99641e+06 1.99641e+06 1.99641e+06 1.99641e+06 1.99641e+06 
1.99642e+06 1.99642e+06 1.99642e+06 1.99642e+06 1.99642e+06 1.99642e+06 1.99642e+06 1.99642e+06 1.99642e+06 
1.99642e+06 1.99642e+06 1.99643e+06 1.99643e+06 1.99643e+06 1.99643e+06 1.99643e+06 1.99643e+06 1.99643e+06 
1.99643e+06 1.99643e+06 1.99643e+06 1.99643e+06 1.99644e+06 1.99644e+06 1.99644e+06 1.99644e+06 1.99644e+06 
1.99644e+06 1.99644e+06 1.99644e+06 1.99644e+06 1.99644e+06 1.99644e+06 1.99644e+06 1.99645e+06 1.99645e+06 
1.99645e+06 1.99645e+06 1.99645e+06 1.99645e+06 1.99645e+06 1.99645e+06 1.99645e+06 1.99645e+06 1.99645e+06 
1.99646e+06 1.99646e+06 1.99646e+06 1.99646e+06 1.99646e+06 1.99646e+06 1.99646e+06 1.99646e+06 1.99646e+06 
1.99646e+06 1.99646e+06 1.99647e+06 1.99647e+06 1.99647e+06 1.99647e+06 1.99647e+06 1.99647e+06 1.99647e+06 
1.99647e+06 1.99647e+06 1.99647e+06 1.99647e+06 1.99647e+06 1.99648e+06 1.99648e+06 1.99648e+06 1.99648e+06 
1.99648e+06 1.99648e+06 1.99648e+06 1.99648e+06 1.99648e+06 1.99648e+06 1.99648e+06 1.99649e+06 1.99649e+06 
1.99649e+06 1.99649e+06 1.99649e+06 1.99649e+06 1.99649e+06 1.99649e+06 1.99649e+06 1.99649e+06 1.99649e+06 
1.9965e+06 1.9965e+06 1.9965e+06 1.9965e+06 1.9965e+06 1.9965e+06 1.9965e+06 1.9965e+06 1.9965e+06 
1.9965e+06 1.9965e+06 1.99651e+06 1.99651e+06 1.99651e+06 1.99651e+06 1.99651e+06 1.99651e+06 1.99651e+06 
1.99651e+06 1.99651e+06 1.99651e+06 1.99651e+06 1.99651e+06 1.99652e+06 1.99652e+06 1.99652e+06 1.99652e+06 
1.99652e+06 1.99652e+06 1.99652e+06 1.99652e+06 1.99652e+06 1.99652e+06 1.99652e+06 1.99653e+06 1.99653e+06 
1.99653e+06 1.99653e+06 1.99653e+06 1.99653e+06 1.99653e+06 1.99653e+06 1.99653e+06 1.99653e+06 1.99653e+06 
1.99654e+06 1.99654e+06 1.99654e+06 1.99654e+06 1.99654e+06 1.99654e+06 1.99654e+06 1.99654e+06 1.99654e+06 
1.99654e+06 1.99654e+06 1.99655e+06 1.99655e+06 1.99655e+06 1.99655e+06 1.99655e+06 1.99655e+06 1.99655e+06 
1.99655e+06 1.99655e+06 1.99655e+06 1.99655e+06 1.99655e+06 1.99656e+06 1.99656e+06 1.99656e+06 1.99656e+06 
1.99656e+06 1.99656e+06 1.99656e+06 1.99656e+06 1.99656e+06 1.99656e+06 1.99656e+06 1.99657e+06 1.99657e+06 
1.99657e+06 1.99657e+06 1.99657e+06 1.99657e+06 1.99657e+06 1.99657e+06 1.99657e+06 1.99657e+06 1.99657e+06 
1.99658e+06 1.99658e+06 1.99658e+06 1.99658e+06 1.99658e+06 1.99658e+06 1.99658e+06 1.99658e+06 1.99658e+06 
1.99658e+06 1.99658e+06 1.99659e+06 1.99659e+06 1.99659e+06 1.99659e+06 1.99659e+06 1.99659e+06 1.99659e+06 
1.99659e+06 1.99659e+06 1.99659e+06 1.99659e+06 1.99659e+06 1.9966e+06 1.9966e+06 1.9966e+06 1.9966e+06 
1.9966e+06 1.9966e+06 1.9966e+06 1.9966e+06 1.9966e+06 1.9966e+06 1.9966e+06 
Z_COORDINATES 3 float
-1.2 -0.7 -0.2 
POINT_DATA 150000
SCALARS properties float
LOOKUP_TABLE default
1668.03 1686.35 1705.53 1725.8 1731.83 1767.52 1823.11 1950.77 1853.05 
1999.14 1842.58 1778.05 1740.45 1710.24 1681.75 1653.24 1624.21 1594.6 
1564.53 1534.14 1462.09 1420.32 1377.93 1335.36 1293.01 1251.31 1210.66 
1171.42 1133.91 1098.4 1065.1 1034.17 1005.7 979.721 956.224 935.153 
916.419 899.907 885.48 872.994 789.881 777.925 767.321 757.897 749.493 
741.966 735.189 762.111 758.418 755.277 752.602 750.319 748.366 746.69 
745.247 744 742.92 741.983 741.171 740.467 739.86 739.342 738.906 
738.546 738.26 738.044 569.187 571.59 573.937 576.23 578.47 580.66 
582.802 584.897 586.949 588.957 590.926 592.855 594.746 596.601 598.42 
600.204 601.953 603.668 605.348 710.318 711.815 713.305 714.783 716.247 
717.692 719.117 720.518 721.894 723.24 724.557 725.842 727.093 728.309 
729.489 730.633 731.739 732.808 733.838 734.831 785.953 787.547 789.103 
790.621 792.102 793.547 794.955 796.327 797.664 798.966 800.234 801.467 
802.668 803.836 804.971 806.075 807.148 848.692 851.106 853.455 855.739 
857.96 860.119 862.215 864.251 866.226 868.141 869.999 871.798 873.541 
875.229 876.861 878.439 879.965 881.438 882.861 884.233 885.557 996.997 
997.307 997.599 997.872 998.126 998.363 998.583 998.786 998.973 999.144 
999.301 999.443 999.57 999.685 999.787 999.876 999.954 1000.02 1000.08 
1000.12 1000.16 1318.35 1320.43 1322.47 1324.47 1326.43 1328.36 1330.24 
1332.08 1333.89 1335.65 1337.38 1339.07 1340.72 1342.33 1343.91 1345.44 
1346.94 1348.41 1349.83 1366.18 1366.04 1365.88 1365.71 1365.52 1365.33 
1365.11 1364.89 1364.66 1364.41 1364.16 1363.89 1363.62 1363.34 1363.05 
1362.75 1362.45 1656.1 1675.58 1696.06 1717.51 1740.71 1756.73 1802.5 
1876.64 1951.03 1897.8 1816.54 1766.79 1731.9 1701.72 1672.53 1643.11 
1613.13 1582.61 1551.67 1520.45 1444.99 1401.58 1357.54 1313.33 1269.4 
1226.2 1184.17 1143.71 1105.17 1068.85 1034.95 1003.65 975.033 949.119 
925.88 905.239 887.085 871.276 857.654 846.049 765.93 755.085 745.567 
737.19 729.786 723.207 748.444 745.123 742.388 740.141 738.297 736.785 
735.543 734.522 733.681 732.988 732.415 731.943 731.556 731.242 730.994 
730.806 730.674 730.595 730.57 730.596 569.87 572.324 574.717 577.051 
579.329 581.554 583.728 585.853 587.933 589.969 591.964 593.919 595.836 
597.716 599.56 601.369 603.143 604.882 708.92 710.487 712.047 713.599 
715.137 716.659 718.16 719.638 721.09 722.513 723.904 725.263 726.586 
727.873 729.122 730.333 731.504 732.634 733.725 734.774 785.02 786.681 
788.303 789.884 791.426 792.929 794.394 795.82 797.209 798.562 799.878 
801.159 802.404 803.615 804.793 805.937 807.049 848.029 850.533 852.968 
855.336 857.639 859.876 862.049 864.158 866.204 868.189 870.113 871.976 
873.781 875.528 877.217 878.85 880.428 881.952 883.423 884.841 886.209 
997.092 997.423 997.734 998.024 998.295 998.548 998.782 998.998 999.197 
999.38 999.546 999.697 999.833 999.955 1000.06 1000.16 1000.24 1000.31 
1000.37 1000.42 1000.46 1317.5 1319.65 1321.76 1323.82 1325.84 1327.83 
1329.77 1331.67 1333.53 1335.35 1337.13 1338.87 1340.57 1342.23 1343.86 
1345.44 1346.99 1348.49 1349.96 1351.4 1366.57 1366.42 1366.25 1366.07 
1365.87 1365.66 1365.44 1365.21 1364.96 1364.7 1364.44 1364.16 1363.87 
1363.58 1363.28 1362.97 1362.65 1638.87 1659.05 1680.29 1702.23 1724.81 
1732.63 1763.95 1794.91 1812.73 1801.26 1772.29 1741.93 1713.14 1684.78 
1655.98 1626.44 1596.18 1565.32 1534.01 1502.41 1423.23 1378.46 1333.01 
1287.38 1242.06 1197.55 1154.32 1112.81 1073.41 1036.43 1002.12 970.639 
942.061 916.402 893.613 873.593 856.202 841.273 828.621 818.052 741.456 
731.839 723.506 716.263 709.933 733.382 730.495 728.238 726.495 725.17 
724.179 723.453 722.934 722.576 722.342 722.203 722.136 722.124 722.158 
722.228 722.331 722.464 722.627 722.821 723.047 568.075 570.645 573.146 
575.581 577.953 580.265 582.521 584.724 586.877 588.983 591.044 593.063 
595.043 596.984 598.888 600.757 602.59 604.389 707.411 709.048 710.683 
712.312 713.929 715.53 717.113 718.673 720.206 721.711 723.183 724.621 
726.023 727.386 728.71 729.992 731.233 732.431 733.586 734.698 784.036 
785.769 787.46 789.108 790.714 792.279 793.803 795.286 796.731 798.136 
799.503 800.833 802.125 803.382 804.603 805.79 806.942 847.321 849.917 
852.443 854.899 857.286 859.606 861.858 864.044 866.165 868.222 870.215 
872.146 874.016 875.824 877.574 879.264 880.897 882.474 883.995 885.462 
886.875 888.237 997.536 997.867 998.177 998.467 998.736 998.986 999.216 
999.429 999.623 999.8 999.961 1000.11 1000.24 1000.35 1000.45 1000.54 
1000.61 1000.68 1000.73 1000.77 1316.61 1318.82 1321 1323.13 1325.22 
1327.26 1329.26 1331.23 1333.15 1335.02 1336.86 1338.65 1340.41 1342.12 
1343.79 1345.43 1347.02 1348.57 1350.09 1351.56 1367.12 1366.97 1366.81 
1366.63 1366.44 1366.23 1366.01 1365.77 1365.53 1365.27 1365 1364.72 
1364.43 1364.13 1363.82 1363.51 1363.18 1362.86 1615.44 1635.68 1657.11 
1679.05 1700.81 1721.66 1722.72 1740.79 1749.06 1744.72 1730 1709.28 
1685.34 1659.3 1631.68 1602.81 1573 1542.46 1511.38 1479.91 1396.75 
1350.93 1304.36 1257.56 1211.07 1165.44 1121.2 1078.82 1038.75 1001.31 
966.778 935.305 906.969 881.767 859.627 840.42 823.978 810.104 798.586 
789.203 716.672 708.385 701.325 695.288 690.09 714.445 712.731 711.567 
710.841 710.456 710.332 710.401 710.611 710.919 711.29 711.7 712.133 
712.574 713.019 713.462 713.905 714.348 714.794 715.249 566.199 568.896 
571.516 574.06 576.533 578.939 581.281 583.565 585.793 587.97 590.099 
592.183 594.224 596.227 598.191 600.118 602.01 603.868 605.691 707.49 
709.202 710.911 712.611 714.297 715.966 717.613 719.234 720.826 722.385 
723.908 725.394 726.841 728.245 729.606 730.922 732.194 733.419 734.598 
735.73 784.806 786.571 788.289 789.964 791.594 793.181 794.725 796.227 
797.688 799.108 800.489 801.832 803.136 804.403 805.633 806.828 807.987 
849.258 851.878 854.425 856.901 859.306 861.641 863.908 866.107 868.239 
870.305 872.306 874.243 876.117 877.929 879.68 881.371 883.003 884.577 
886.095 887.556 888.964 997.645 997.999 998.33 998.639 998.927 999.194 
999.44 999.667 999.874 1000.06 1000.23 1000.39 1000.53 1000.65 1000.76 
1000.85 1000.93 1001 1001.05 1001.09 1001.12 1317.95 1320.2 1322.39 
1324.55 1326.66 1328.73 1330.75 1332.74 1334.67 1336.57 1338.42 1340.23 
1342 1343.72 1345.4 1347.05 1348.65 1350.21 1351.73 1367.68 1367.54 
1367.38 1367.21 1367.02 1366.81 1366.59 1366.36 1366.11 1365.85 1365.58 
1365.3 1365 1364.7 1364.39 1364.07 1363.74 1363.4 1363.06 1585.01 
1604.52 1625.45 1646.95 1667.99 1687.38 1676.24 1690.82 1697.45 1695.39 
1685.43 1669.35 1648.89 1625.33 1599.55 1572.15 1543.56 1514.07 1483.87 
1453.08 1365.69 1319.16 1271.77 1224.06 1176.64 1130.1 1085.04 1042 
1001.44 963.748 929.186 897.928 870.039 845.498 824.204 806.001 790.688 
778.037 767.806 700.09 691.821 684.946 679.226 674.449 696.909 695.792 
695.275 695.224 695.529 696.094 696.843 697.711 698.648 699.615 700.584 
701.536 702.456 703.337 704.179 704.981 705.748 706.486 707.202 564.237 
567.076 569.825 572.489 575.071 577.577 580.012 582.38 584.686 586.936 
589.133 591.282 593.385 595.448 597.471 599.456 601.406 603.322 605.203 
705.803 707.594 709.386 711.173 712.949 714.709 716.449 718.163 719.848 
721.501 723.117 724.694 726.23 727.721 729.167 730.566 731.917 733.219 
734.471 735.673 783.791 785.633 787.427 789.174 790.873 792.526 794.134 
795.697 797.217 798.693 800.128 801.522 802.876 804.19 805.467 806.705 
807.907 848.552 851.269 853.912 856.48 858.975 861.397 863.748 866.028 
868.239 870.381 872.456 874.463 876.406 878.283 880.097 881.849 883.539 
885.169 886.739 888.252 889.707 997.75 998.129 998.483 998.813 999.121 
999.406 999.669 999.911 1000.13 1000.34 1000.52 1000.68 1000.83 1000.96 
1001.08 1001.17 1001.26 1001.33 1001.39 1001.43 1001.46 1317.03 1319.35 
1321.62 1323.84 1326.03 1328.16 1330.25 1332.3 1334.3 1336.25 1338.16 
1340.03 1341.85 1343.63 1345.37 1347.06 1348.71 1350.32 1351.89 1368.26 
1368.13 1367.97 1367.81 1367.62 1367.42 1367.2 1366.97 1366.72 1366.46 
1366.18 1365.9 1365.6 1365.29 1364.98 1364.65 1364.32 1363.97 1363.62 
1363.27 1547.12 1564.93 1584.47 1604.9 1625.09 1643.74 1659.47 1634.13 
1641.06 1640.79 1633.76 1621 1603.74 1583.08 1559.88 1534.79 1508.24 
1480.53 1451.84 1422.29 1330.47 1283.58 1235.65 1187.29 1139.16 1091.93 
1046.25 1002.73 961.882 924.12 889.733 858.892 831.652 807.967 787.711 
770.692 756.676 745.401 736.595 673.893 667.169 661.764 657.428 677.874 
677.388 677.567 678.256 679.326 680.665 682.181 683.8 685.46 687.115 
688.732 690.286 691.762 693.153 694.457 695.677 696.819 697.893 698.907 
699.874 565.178 568.072 570.867 573.569 576.184 578.716 581.174 583.562 
585.886 588.153 590.366 592.531 594.653 596.733 598.775 600.781 602.753 
604.691 703.975 705.848 707.727 709.604 711.474 713.331 715.169 716.983 
718.768 720.521 722.237 723.913 725.545 727.132 728.67 730.158 731.595 
732.98 734.312 735.59 782.718 784.644 786.519 788.342 790.115 791.838 
793.513 795.141 796.722 798.258 799.749 801.197 802.603 803.967 805.291 
806.576 807.821 847.796 850.616 853.357 856.021 858.609 861.122 863.561 
865.926 868.219 870.441 872.592 874.674 876.688 878.634 880.515 882.33 
884.081 885.769 887.395 888.961 890.467 891.915 998.255 998.634 998.988 
999.317 999.622 999.904 1000.16 1000.4 1000.62 1000.81 1000.99 1001.15 
1001.29 1001.41 1001.51 1001.6 1001.68 1001.74 1001.79 1001.82 1316.06 
1318.45 1320.8 1323.1 1325.35 1327.55 1329.71 1331.82 1333.89 1335.91 
1337.88 1339.81 1341.69 1343.53 1345.32 1347.07 1348.77 1350.43 1352.05 
1353.62 1368.72 1368.58 1368.42 1368.24 1368.04 1367.82 1367.59 1367.35 
1367.08 1366.81 1366.52 1366.22 1365.91 1365.59 1365.26 1364.91 1364.56 
1364.21 1363.84 1363.47 1501.82 1516.79 1533.9 1552.4 1571.26 1589.2 
1604.93 1567.08 1575.18 1577.11 1573.13 1563.9 1550.33 1533.28 1513.5 
1491.55 1467.82 1442.59 1416 1388.18 1291.75 1244.81 1196.61 1147.82 
1099.19 1051.45 1005.34 961.53 920.58 882.941 848.921 818.69 792.289 
769.646 750.601 734.927 722.353 712.583 705.315 648.141 643.003 639.094 
657.402 657.545 658.44 659.911 661.804 663.988 666.355 668.812 671.289 
673.727 676.085 678.333 680.452 682.432 684.272 685.975 687.551 689.011 
690.368 691.638 563.199 566.253 569.195 572.029 574.762 577.401 579.954 
582.427 584.829 587.165 589.444 591.669 593.848 595.983 598.079 600.138 
602.164 604.156 606.117 703.952 705.919 707.891 709.859 711.818 713.761 
715.681 717.574 719.435 721.258 723.04 724.778 726.467 728.106 729.692 
731.223 732.699 734.117 735.479 781.586 783.601 785.561 787.466 789.317 
791.115 792.861 794.557 796.203 797.801 799.351 800.856 802.316 803.732 
805.106 806.438 807.73 808.982 849.914 852.759 855.523 858.208 860.815 
863.345 865.799 868.178 870.483 872.715 874.875 876.963 878.982 880.931 
882.813 884.628 886.377 888.062 889.684 891.244 892.743 998.376 998.783 
999.162 999.515 999.842 1000.14 1000.42 1000.68 1000.91 1001.12 1001.31 
1001.47 1001.62 1001.75 1001.87 1001.96 1002.04 1002.11 1002.16 1002.2 
1002.22 1317.5 1319.93 1322.3 1324.63 1326.91 1329.14 1331.32 1333.45 
1335.54 1337.58 1339.57 1341.51 1343.41 1345.26 1347.06 1348.82 1350.53 
1352.2 1353.82 1369.34 1369.2 1369.05 1368.87 1368.68 1368.47 1368.24 
1367.99 1367.73 1367.46 1367.17 1366.87 1366.55 1366.22 1365.88 1365.54 
1365.18 1364.81 1364.44 1364.06 1363.67 1449.8 1460.8 1474.35 1489.96 
1506.77 1523.69 1539.51 1553.15 1499.69 1504.45 1504.15 1499.14 1490.01 
1477.37 1461.8 1443.74 1423.5 1401.32 1377.32 1351.61 1250.44 1203.68 
1155.42 1106.41 1057.44 1009.37 962.997 919.058 878.179 840.841 807.366 
777.922 752.531 731.091 713.406 699.21 688.194 680.028 628.143 623.168 
619.618 617.201 636.377 637.967 640.223 642.967 646.045 649.326 652.702 
656.082 659.396 662.59 665.627 668.48 671.138 673.595 675.856 677.931 
679.835 681.585 683.2 561.129 564.365 567.471 570.452 573.316 576.071 
578.726 581.29 583.772 586.18 588.523 590.808 593.041 595.228 597.375 
599.484 601.56 603.603 605.617 701.893 703.952 706.021 708.092 710.158 
712.211 714.245 716.253 718.229 720.168 722.065 723.917 725.718 727.466 
729.158 730.792 732.367 733.881 735.333 736.724 782.5 784.552 786.544 
788.478 790.356 792.177 793.945 795.659 797.323 798.935 800.5 802.016 
803.487 804.912 806.294 807.634 808.932 849.162 852.114 854.982 857.768 
860.474 863.099 865.646 868.114 870.506 872.822 875.062 877.229 879.324 
881.346 883.298 885.18 886.994 888.74 890.421 892.036 893.589 998.492 
998.928 999.335 999.713 1000.06 1000.39 1000.69 1000.96 1001.21 1001.43 
1001.64 1001.82 1001.98 1002.12 1002.24 1002.34 1002.43 1002.5 1002.55 
1002.59 1002.61 1316.5 1319.01 1321.46 1323.87 1326.22 1328.53 1330.78 
1332.99 1335.14 1337.25 1339.3 1341.31 1343.27 1345.18 1347.04 1348.86 
1350.62 1352.34 1354.02 1369.97 1369.84 1369.7 1369.53 1369.34 1369.13 
1368.91 1368.67 1368.41 1368.13 1367.84 1367.53 1367.21 1366.88 1366.54 
1366.18 1365.82 1365.45 1365.06 1364.67 1364.28 1397.04 1392.54 1398.56 
1407.57 1419.37 1433.42 1448.87 1464.7 1479.83 1417.2 1425.29 1429.27 
1429.12 1425.08 1417.49 1406.73 1393.08 1376.79 1358.04 1336.94 1313.59 
1207.59 1161.18 1113.01 1063.9 1014.75 966.484 919.991 876.08 835.43 
798.553 765.784 737.282 713.046 692.941 676.731 664.11 654.729 648.224 
602.638 599.311 597.315 614.127 616.328 619.32 622.896 626.877 631.106 
635.453 639.807 644.08 648.202 652.122 655.806 659.233 662.396 665.297 
667.946 670.36 672.56 674.569 558.959 562.401 565.692 568.839 571.849 
574.732 577.499 580.16 582.726 585.208 587.615 589.958 592.243 594.479 
596.672 598.826 600.947 603.037 605.099 699.658 701.809 703.978 706.156 
708.334 710.505 712.659 714.789 716.89 718.954 720.976 722.95 724.873 
726.74 728.548 730.295 731.978 733.596 735.149 736.634 781.337 783.487 
785.573 787.596 789.558 791.46 793.304 795.091 796.823 798.501 800.128 
801.704 803.231 804.711 806.144 807.533 808.878 848.358 851.42 854.396 
857.288 860.095 862.82 865.462 868.024 870.507 872.91 875.236 877.485 
879.658 881.757 883.782 885.735 887.616 889.428 891.17 892.845 894.454 
895.997 999.069 999.506 999.913 1000.29 1000.64 1000.96 1001.25 1001.52 
1001.76 1001.98 1002.17 1002.34 1002.49 1002.62 1002.73 1002.83 1002.9 
1002.96 1003 1003.03 1315.44 1318.03 1320.57 1323.06 1325.49 1327.87 
1330.2 1332.48 1334.71 1336.89 1339.01 1341.09 1343.11 1345.09 1347.01 
1348.88 1350.71 1352.48 1354.21 1355.89 1370.5 1370.36 1370.2 1370.02 
1369.82 1369.6 1369.36 1369.1 1368.82 1368.53 1368.22 1367.9 1367.57 
1367.22 1366.86 1366.49 1366.1 1365.71 1365.31 1364.91 1364.49 1397.5 
1332.14 1332.5 1336.3 1343.67 1354.44 1368.09 1383.79 1400.5 1417.17 
1343.68 1352.18 1357.16 1358.5 1356.24 1350.53 1341.52 1329.37 1314.2 
1296.11 1275.22 1164.31 1118.34 1070.35 1021.24 972.014 923.669 877.186 
833.442 793.163 756.89 724.966 697.535 674.569 655.896 641.237 630.243 
622.528 617.696 578.661 576.908 591.194 593.846 597.45 601.775 606.61 
611.774 617.108 622.477 627.768 632.894 637.784 642.391 646.683 650.645 
654.274 657.579 660.578 663.293 665.753 667.987 560.352 563.855 567.189 
570.364 573.391 576.281 579.047 581.703 584.261 586.733 589.131 591.466 
593.746 595.98 598.174 600.334 602.465 604.569 606.648 699.478 701.749 
704.037 706.332 708.625 710.906 713.168 715.401 717.6 719.756 721.864 
723.919 725.916 727.851 729.721 731.523 733.256 734.918 736.507 780.109 
782.365 784.551 786.67 788.722 790.709 792.634 794.498 796.302 798.049 
799.741 801.379 802.965 804.501 805.988 807.428 808.823 810.172 850.676 
853.764 856.764 859.677 862.505 865.248 867.907 870.484 872.979 875.393 
877.728 879.985 882.163 884.265 886.292 888.245 890.124 891.932 893.669 
895.337 896.937 999.204 999.674 1000.11 1000.52 1000.89 1001.24 1001.55 
1001.84 1002.1 1002.33 1002.54 1002.73 1002.89 1003.03 1003.15 1003.25 
1003.33 1003.39 1003.43 1003.46 1314.32 1317 1319.62 1322.19 1324.71 
1327.18 1329.59 1331.94 1334.25 1336.5 1338.7 1340.84 1342.93 1344.97 
1346.96 1348.9 1350.78 1352.62 1354.4 1356.14 1371.17 1371.04 1370.9 
1370.72 1370.53 1370.31 1370.08 1369.82 1369.54 1369.25 1368.94 1368.62 
1368.28 1367.92 1367.56 1367.18 1366.79 1366.39 1365.98 1365.56 1365.14 
1398 1397.96 1271.12 1265.58 1263.94 1266.68 1274 1285.73 1301.22 
1319.5 1339.36 1264.25 1277.02 1286.91 1293.42 1296.31 1295.5 1291.01 
1282.88 1271.21 1256.06 1237.54 1121.71 1076.19 1028.41 979.375 930.148 
881.832 835.479 792.029 752.253 716.712 685.749 659.492 637.879 620.697 
607.622 598.262 592.193 558.36 556.584 568.18 571.026 575.03 579.933 
585.498 591.513 597.79 604.165 610.499 616.676 622.604 628.215 633.462 
638.315 642.765 646.815 650.479 653.783 656.757 659.436 558.206 561.95 
565.5 568.862 572.051 575.079 577.962 580.714 583.352 585.891 588.344 
590.724 593.043 595.312 597.539 599.731 601.894 604.033 606.151 696.942 
699.316 701.717 704.133 706.554 708.97 711.371 713.746 716.089 718.391 
720.644 722.843 724.981 727.055 729.06 730.993 732.851 734.633 736.337 
737.963 781.18 783.475 785.696 787.844 789.923 791.934 793.879 795.76 
797.58 799.34 801.043 802.691 804.286 805.828 807.321 808.766 810.164 
849.878 853.081 856.194 859.217 862.152 864.999 867.759 870.434 873.025 
875.532 877.957 880.3 882.562 884.746 886.85 888.878 890.829 892.705 
894.508 896.238 897.898 999.331 999.837 1000.31 1000.75 1001.15 1001.52 
1001.86 1002.17 1002.45 1002.7 1002.93 1003.13 1003.3 1003.45 1003.58 
1003.69 1003.77 1003.84 1003.89 1003.92 1003.93 1315.9 1318.61 1321.27 
1323.88 1326.43 1328.92 1331.36 1333.75 1336.08 1338.35 1340.57 1342.73 
1344.84 1346.89 1348.9 1350.84 1352.74 1354.58 1356.38 1371.86 1371.75 
1371.61 1371.45 1371.26 1371.05 1370.82 1370.56 1370.29 1370 1369.69 
1369.36 1369.02 1368.66 1368.29 1367.9 1367.5 1367.1 1366.68 1366.25 
1365.81 1398.52 1398.48 1398.43 1212.1 1200.83 1193.97 1192.32 1196.41 
1206.34 1221.66 1241.41 1264.25 1288.75 1207.61 1221.67 1232.68 1240.12 
1243.69 1243.26 1238.79 1230.29 1217.83 1201.47 1080.76 1035.66 988.106 
939.181 890.038 841.855 795.753 752.725 713.576 678.882 648.981 623.977 
603.772 588.108 576.61 568.84 564.339 537.164 536.756 548.598 552.681 
557.886 563.954 570.645 577.74 585.044 592.385 599.615 606.614 613.286 
619.561 625.391 630.752 635.637 640.054 644.027 647.587 650.772 555.946 
559.969 563.765 567.344 570.718 573.902 576.915 579.774 582.498 585.104 
587.611 590.033 592.386 594.683 596.934 599.15 601.337 603.502 605.648 
694.187 696.663 699.178 701.719 704.274 706.83 709.378 711.905 714.403 
716.861 719.272 721.627 723.92 726.146 728.299 730.375 732.371 734.286 
736.116 737.862 779.929 782.341 784.672 786.925 789.101 791.204 793.235 
795.198 797.094 798.927 800.698 802.41 804.065 805.666 807.213 808.71 
810.158 849.025 852.348 855.577 858.713 861.758 864.713 867.578 870.356 
873.046 875.65 878.168 880.602 882.953 885.221 887.407 889.513 891.54 
893.488 895.36 897.157 898.879 999.449 999.995 1000.5 1000.97 1001.41 
1001.81 1002.18 1002.51 1002.81 1003.09 1003.33 1003.54 1003.73 1003.89 
1004.03 1004.15 1004.24 1004.31 1004.37 1004.4 1004.42 1314.74 1317.55 
1320.3 1323 1325.63 1328.22 1330.74 1333.21 1335.62 1337.97 1340.26 
1342.5 1344.68 1346.81 1348.88 1350.9 1352.86 1354.76 1356.61 1372.56 
1372.47 1372.34 1372.19 1372.01 1371.81 1371.58 1371.34 1371.06 1370.77 
1370.46 1370.13 1369.79 1369.42 1369.05 1368.65 1368.25 1367.83 1367.4 
1366.97 1366.52 1366.06 1399.02 1398.97 1398.9 1157.47 1141.01 1129.52 
1124.07 1125.42 1133.87 1149.1 1170.17 1195.64 1223.85 1253.17 1163.96 
1178.45 1189.5 1196.64 1199.59 1198.2 1192.42 1182.26 1167.78 1039.05 
995.546 950.211 901.452 852.484 804.552 758.833 716.36 677.962 644.223 
615.471 591.786 573.03 558.892 548.938 542.674 539.604 518.789 527.553 
531.278 536.384 542.604 549.677 557.358 565.417 573.647 581.863 589.91 
597.658 605.005 611.878 618.229 624.036 629.294 634.021 638.245 642.007 
645.353 557.896 561.978 565.806 569.393 572.757 575.918 578.896 581.713 
584.391 586.952 589.413 591.795 594.111 596.378 598.606 600.806 602.986 
605.151 607.306 693.774 696.402 699.07 701.762 704.466 707.168 709.857 
712.521 715.148 717.728 720.254 722.716 725.107 727.422 729.656 731.805 
733.866 735.836 737.714 778.607 781.146 783.596 785.961 788.243 790.444 
792.567 794.616 796.593 798.502 800.344 802.123 803.841 805.502 807.106 
808.657 810.156 811.605 851.56 854.909 858.162 861.321 864.388 867.362 
870.246 873.039 875.744 878.36 880.889 883.331 885.688 887.961 890.149 
892.256 894.281 896.225 898.091 899.88 901.593 1000.14 1000.69 1001.2 
1001.67 1002.11 1002.5 1002.86 1003.19 1003.48 1003.75 1003.98 1004.18 
1004.36 1004.51 1004.63 1004.73 1004.81 1004.87 1004.9 1004.92 1313.5 
1316.41 1319.26 1322.05 1324.78 1327.46 1330.07 1332.62 1335.12 1337.55 
1339.93 1342.25 1344.51 1346.71 1348.85 1350.93 1352.96 1354.93 1356.84 
1358.7 1373.2 1373.09 1372.96 1372.79 1372.6 1372.38 1372.13 1371.87 
1371.58 1371.27 1370.94 1370.59 1370.22 1369.84 1369.44 1369.03 1368.6 
1368.16 1367.71 1367.25 1366.79 1399.59 1399.53 1399.46 1399.38 1109.2 
1088.32 1073.04 1064.58 1063.85 1071.22 1086.47 1108.66 1136.28 1167.54 
1200.58 1115.22 1132.01 1145.6 1155.35 1160.86 1161.87 1158.24 1149.93 
1038.07 1000.37 958.154 912.607 865.081 817.001 769.789 724.762 683.668 
646.146 613.467 585.949 563.653 546.404 533.824 525.391 520.523 503.632 
509.204 512.022 516.48 522.343 529.355 537.249 545.764 554.655 563.696 
572.688 581.462 589.875 597.819 605.216 612.017 618.199 623.764 628.735 
595.238 600.062 555.712 560.123 564.24 568.076 571.648 574.979 578.092 
581.014 583.77 586.386 588.884 591.288 593.617 595.888 598.118 600.318 
602.499 604.67 606.835 690.63 693.371 696.165 698.998 701.854 704.719 
707.579 710.419 713.227 715.991 718.701 721.347 723.921 726.414 728.822 
731.139 733.361 735.485 737.511 739.435 779.885 782.465 784.951 787.346 
789.653 791.875 794.016 796.078 798.067 799.984 801.833 803.617 805.34 
807.002 808.609 810.16 811.659 850.718 854.189 857.562 860.839 864.02 
867.107 870.101 873.002 875.811 878.529 881.157 883.696 886.146 888.509 
890.784 892.974 895.08 897.102 899.042 900.901 902.68 1000.28 1000.88 
1001.43 1001.94 1002.4 1002.83 1003.22 1003.58 1003.9 1004.18 1004.43 
1004.65 1004.84 1005.01 1005.14 1005.25 1005.33 1005.4 1005.44 1005.46 
1005.46 1315.2 1318.16 1321.05 1323.88 1326.64 1329.35 1332 1334.58 
1337.1 1339.56 1341.96 1344.3 1346.58 1348.8 1350.95 1353.05 1355.09 
1357.07 1358.99 1373.96 1373.86 1373.74 1373.59 1373.41 1373.19 1372.96 
1372.7 1372.41 1372.1 1371.77 1371.42 1371.05 1370.66 1370.26 1369.83 
1369.4 1368.95 1368.49 1368.02 1367.54 1400.18 1400.12 1400.04 1399.96 
1399.86 1068.84 1044.43 1026.35 1015.86 1013.76 1020.39 1035.6 1058.6 
1087.86 1121.45 1157.39 1193.92 1093.79 1108.84 1120.24 1127.46 1130.15 
1128.08 1033.93 1003.05 966.504 925.286 880.617 833.882 786.554 740.096 
695.871 655.052 618.563 587.044 560.845 540.04 524.606 513.739 506.925 
503.373 495.325 496.626 499.691 504.454 510.737 518.279 526.786 535.967 
545.546 555.275 564.933 574.332 583.319 591.774 599.612 571.832 578.764 
585.171 591.038 596.369 601.186 558.182 562.635 566.76 570.576 574.105 
577.376 580.417 583.26 585.934 588.468 590.889 593.222 595.487 597.705 
599.891 602.059 604.219 606.38 687.218 690.066 692.985 695.96 698.972 
702.006 705.044 708.072 711.074 714.037 716.947 719.793 722.566 725.255 
727.854 730.356 732.757 735.053 737.241 739.319 778.554 781.276 783.894 
786.411 788.832 791.16 793.398 795.552 797.625 799.621 801.543 803.396 
805.182 806.905 808.568 810.173 811.723 849.819 853.416 856.912 860.309 
863.608 866.811 869.918 872.93 875.848 878.673 881.404 884.044 886.591 
889.049 891.416 893.694 895.884 897.988 900.005 901.939 903.789 1000.41 
1001.05 1001.65 1002.2 1002.71 1003.17 1003.6 1003.98 1004.33 1004.63 
1004.91 1005.15 1005.35 1005.53 1005.67 1005.79 1005.89 1005.95 1006 
1006.02 1006.02 1313.92 1316.98 1319.97 1322.91 1325.77 1328.58 1331.32 
1334 1336.61 1339.16 1341.64 1344.07 1346.43 1348.72 1350.96 1353.13 
1355.24 1357.29 1359.28 1374.73 1374.66 1374.55 1374.41 1374.24 1374.04 
1373.81 1373.56 1373.27 1372.97 1372.64 1372.28 1371.91 1371.52 1371.11 
1370.68 1370.24 1369.78 1369.31 1368.82 1368.33 1400.79 1400.73 1400.65 
1400.56 1400.46 1400.34 1037.6 1010.62 991.031 979.934 977.33 983.077 
997.672 1020.88 1051.18 1086.43 1124.47 1163.39 1063.53 1079.07 1091.22 
1099.36 1103.05 1026.59 1002.98 972.971 937.272 896.874 853.003 807.061 
760.539 714.924 671.599 631.755 596.337 566.014 541.184 521.992 508.319 
499.68 495.042 474.143 475.607 474.708 490.991 495.416 501.691 509.469 
518.372 528.042 538.162 548.447 558.654 568.572 548.588 557.168 565.343 
573.018 580.128 586.64 592.545 597.857 602.609 560.971 565.434 569.535 
573.298 576.753 579.934 582.877 585.616 588.187 590.621 592.949 595.197 
597.389 599.546 601.684 603.817 605.956 608.108 686.469 689.51 692.625 
695.795 699.003 702.228 705.454 708.662 711.837 714.964 718.028 721.018 
723.922 726.732 729.439 732.038 734.524 736.892 739.142 777.147 780.024 
782.786 785.436 787.98 790.422 792.766 795.017 797.179 799.257 801.256 
803.18 805.032 806.817 808.538 810.197 811.799 813.346 852.588 856.209 
859.729 863.149 866.471 869.695 872.822 875.852 878.787 881.626 884.371 
887.021 889.577 892.04 894.412 896.691 898.881 900.981 902.993 904.918 
906.759 1001.22 1001.86 1002.46 1003.01 1003.52 1003.98 1004.39 1004.77 
1005.1 1005.4 1005.66 1005.88 1006.08 1006.24 1006.36 1006.47 1006.54 
1006.59 1006.61 1006.62 1312.56 1315.73 1318.83 1321.87 1324.84 1327.75 